 vasp.6.4.2 20Jul23 (build Mar 01 2024 16:46:03) complex                        
  
 executed on             LinuxIFC date 2024.08.05  18:46:59
 running   24 mpi-ranks, on    1 nodes
 distrk:  each k-point on   24 cores,    1 groups
 distr:  one band on NCORE=   8 cores,    3 groups


--------------------------------------------------------------------------------------------------------


 INCAR:
   ENCUT = 544.000000
   POTIM = 0.000000
   SIGMA = 0.100000
   ZAB_VDW = -1.886700
   EDIFF = 1.00e-07
   EDIFFG = 0.00e+00
   ALGO = Fast
   GGA = BF
   IBRION = -1
   ISMEAR = 1
   ISYM = 0
   IWAVPR = 11
   NELM = 150
   NSW = 0
   NCORE = 8
   LUSE_VDW = .TRUE.
   INTERACTIVE = .TRUE.
   LREAL = Auto
   ISPIN = 2
   MAGMOM = 38*0.6000
   LBEEFENS = .TRUE.

 POTCAR:    PAW_PBE Ni 02Aug2007                  
 POTCAR:    PAW_PBE O 08Apr2002                   
 POTCAR:    PAW_PBE C 08Apr2002                   
 -----------------------------------------------------------------------------
|                                                                             |
|               ----> ADVICE to this user running VASP <----                  |
|                                                                             |
|     You have switched on vdW-DFT.                                           |
|     This routine was written and supplied by Jiri Klimes. We recommend      |
|     that you carefully read and cite the following publications:            |
|       J. Klimes, D.R. Bowler, A. Michelides                                 |
|          J. Phys.: Cond Matt. 22 022201 (2010)                              |
|       J. Klimes, D.R. Bowler, A. Michelides                                 |
|          Phys. Rev. B. 83, 195131 (2011)                                    |
|     and references therein.                                                 |
|                                                                             |
 -----------------------------------------------------------------------------

 POTCAR:    PAW_PBE Ni 02Aug2007                  
   SHA256 =  0534bc51ca8003dfef23f56753fef9fdd3e22eac8d719fccacb59f3e6b7a69c7 Ni/POTCAR             
   COPYR  = (c) Copyright 02Aug2007 Georg Kresse                                                    
   COPYR  = This file is part of the software VASP. Any use, copying, and all other rights are regul
   COPYR  = If you do not have a valid VASP license, you may not use, copy or distribute this file. 
   VRHFIN =Ni:                                                                                      
   LEXCH  = PE                                                                                      
   EATOM  =  1077.6739 eV,   79.2068 Ry                                                             
                                                                                                    
   TITEL  = PAW_PBE Ni 02Aug2007                                                                    
   LULTRA =        F    use ultrasoft PP ?                                                          
   IUNSCR =        1    unscreen: 0-lin 1-nonlin 2-no                                               
   RPACOR =    2.000    partial core radius                                                         
   POMASS =   58.690; ZVAL   =   10.000    mass and valenz                                          
   RCORE  =    2.300    outmost cutoff radius                                                       
   RWIGS  =    2.430; RWIGS  =    1.286    wigner-seitz radius (au A)                               
   ENMAX  =  269.532; ENMIN  =  202.149 eV                                                          
   RCLOC  =    1.201    cutoff for local pot                                                        
   LCOR   =        T    correct aug charges                                                         
   LPAW   =        T    paw PP                                                                      
   EAUG   =  544.565                                                                                
   DEXC   =    0.000                                                                                
   RMAX   =    2.357    core radius for proj-oper                                                   
   RAUG   =    1.300    factor for augmentation sphere                                              
   RDEP   =    2.390    radius for radial grids                                                     
   RDEPT  =    1.838    core radius for aug-charge                                                  
                                                                                                    
   Atomic configuration                                                                             
    9 entries                                                                                       
     n  l   j            E        occ.                                                              
     1  0  0.50     -8206.4253   2.0000                                                             
     2  0  0.50      -976.1748   2.0000                                                             
     2  1  1.50      -839.0571   6.0000                                                             
     3  0  0.50      -105.9991   2.0000                                                             
     3  1  1.50       -66.4603   6.0000                                                             
     3  2  2.50        -4.6458   9.0000                                                             
     4  0  0.50        -4.4926   1.0000                                                             
     4  1  1.50        -4.0817   0.0000                                                             
     4  3  2.50        -1.3606   0.0000                                                             
   Description                                                                                      
     l       E           TYP  RCUT    TYP  RCUT                                                     
     2     -4.6457903     23  2.300                                                                 
     2     -6.0063729     23  2.300                                                                 
     0     -4.4925590     23  2.300                                                                 
     0      5.0102601     23  2.300                                                                 
     1     -2.7211652     23  2.300                                                                 
     1     16.5183231     23  2.300                                                                 
  local pseudopotential read in
  partial core-charges read in
  partial kinetic energy density read in
  atomic valenz-charges read in
  non local Contribution for L=           2  read in
    real space projection operators read in
  non local Contribution for L=           2  read in
    real space projection operators read in
  non local Contribution for L=           0  read in
    real space projection operators read in
  non local Contribution for L=           0  read in
    real space projection operators read in
  non local Contribution for L=           1  read in
    real space projection operators read in
  non local Contribution for L=           1  read in
    real space projection operators read in
    PAW grid and wavefunctions read in
 
   number of l-projection  operators is LMAX  =           6
   number of lm-projection operators is LMMAX =          18
 
 POTCAR:    PAW_PBE O 08Apr2002                   
   SHA256 =  818f92134a0a090dccd8ba1447fa70422a3b330e708bb4f08108d8ae51209ddf O/POTCAR              
   COPYR  = (c) Copyright 08Apr2002 Georg Kresse                                                    
   COPYR  = This file is part of the software VASP. Any use, copying, and all other rights are regul
   COPYR  = If you do not have a valid VASP license, you may not use, copy or distribute this file. 
   VRHFIN =O: s2p4                                                                                  
   LEXCH  = PE                                                                                      
   EATOM  =   432.3788 eV,   31.7789 Ry                                                             
                                                                                                    
   TITEL  = PAW_PBE O 08Apr2002                                                                     
   LULTRA =        F    use ultrasoft PP ?                                                          
   IUNSCR =        1    unscreen: 0-lin 1-nonlin 2-no                                               
   RPACOR =    1.200    partial core radius                                                         
   POMASS =   16.000; ZVAL   =    6.000    mass and valenz                                          
   RCORE  =    1.520    outmost cutoff radius                                                       
   RWIGS  =    1.550; RWIGS  =    0.820    wigner-seitz radius (au A)                               
   ENMAX  =  400.000; ENMIN  =  300.000 eV                                                          
   ICORE  =        2    local potential                                                             
   LCOR   =        T    correct aug charges                                                         
   LPAW   =        T    paw PP                                                                      
   EAUG   =  605.392                                                                                
   DEXC   =    0.000                                                                                
   RMAX   =    1.553    core radius for proj-oper                                                   
   RAUG   =    1.300    factor for augmentation sphere                                              
   RDEP   =    1.550    radius for radial grids                                                     
   RDEPT  =    1.329    core radius for aug-charge                                                  
                                                                                                    
   Atomic configuration                                                                             
    4 entries                                                                                       
     n  l   j            E        occ.                                                              
     1  0  0.50      -514.6923   2.0000                                                             
     2  0  0.50       -23.9615   2.0000                                                             
     2  1  0.50        -9.0305   4.0000                                                             
     3  2  1.50        -9.5241   0.0000                                                             
   Description                                                                                      
     l       E           TYP  RCUT    TYP  RCUT                                                     
     0    -23.9615318     23  1.200                                                                 
     0     -9.5240782     23  1.200                                                                 
     1     -9.0304911     23  1.520                                                                 
     1      8.1634956     23  1.520                                                                 
     2     -9.5240782      7  1.500                                                                 
  local pseudopotential read in
  partial core-charges read in
  partial kinetic energy density read in
  kinetic energy density of atom read in
  atomic valenz-charges read in
  non local Contribution for L=           0  read in
    real space projection operators read in
  non local Contribution for L=           0  read in
    real space projection operators read in
  non local Contribution for L=           1  read in
    real space projection operators read in
  non local Contribution for L=           1  read in
    real space projection operators read in
    PAW grid and wavefunctions read in
 
   number of l-projection  operators is LMAX  =           4
   number of lm-projection operators is LMMAX =           8
 
 POTCAR:    PAW_PBE C 08Apr2002                   
   SHA256 =  253f7b50bb8d59471dbedb8285d89021f4a42ed1a2c5d38a03a736e69125dd95 C/POTCAR              
   COPYR  = (c) Copyright 08Apr2002 Georg Kresse                                                    
   COPYR  = This file is part of the software VASP. Any use, copying, and all other rights are regul
   COPYR  = If you do not have a valid VASP license, you may not use, copy or distribute this file. 
   VRHFIN =C: s2p2                                                                                  
   LEXCH  = PE                                                                                      
   EATOM  =   147.1560 eV,   10.8157 Ry                                                             
                                                                                                    
   TITEL  = PAW_PBE C 08Apr2002                                                                     
   LULTRA =        F    use ultrasoft PP ?                                                          
   IUNSCR =        1    unscreen: 0-lin 1-nonlin 2-no                                               
   RPACOR =    1.200    partial core radius                                                         
   POMASS =   12.011; ZVAL   =    4.000    mass and valenz                                          
   RCORE  =    1.500    outmost cutoff radius                                                       
   RWIGS  =    1.630; RWIGS  =    0.863    wigner-seitz radius (au A)                               
   ENMAX  =  400.000; ENMIN  =  300.000 eV                                                          
   ICORE  =        2    local potential                                                             
   LCOR   =        T    correct aug charges                                                         
   LPAW   =        T    paw PP                                                                      
   EAUG   =  644.873                                                                                
   DEXC   =    0.000                                                                                
   RMAX   =    1.529    core radius for proj-oper                                                   
   RAUG   =    1.300    factor for augmentation sphere                                              
   RDEP   =    1.501    radius for radial grids                                                     
   RDEPT  =    1.300    core radius for aug-charge                                                  
                                                                                                    
   Atomic configuration                                                                             
    4 entries                                                                                       
     n  l   j            E        occ.                                                              
     1  0  0.50      -273.3789   2.0000                                                             
     2  0  0.50       -13.7508   2.0000                                                             
     2  1  0.50        -5.2854   2.0000                                                             
     3  2  1.50        -5.4423   0.0000                                                             
   Description                                                                                      
     l       E           TYP  RCUT    TYP  RCUT                                                     
     0    -13.7508458     23  1.200                                                                 
     0     -8.2022199     23  1.200                                                                 
     1     -5.2854383     23  1.500                                                                 
     1     34.0145650     23  1.500                                                                 
     2     -5.4423304      7  1.500                                                                 
  local pseudopotential read in
  partial core-charges read in
  partial kinetic energy density read in
  atomic valenz-charges read in
  non local Contribution for L=           0  read in
    real space projection operators read in
  non local Contribution for L=           0  read in
    real space projection operators read in
  non local Contribution for L=           1  read in
    real space projection operators read in
  non local Contribution for L=           1  read in
    real space projection operators read in
    PAW grid and wavefunctions read in
 
   number of l-projection  operators is LMAX  =           4
   number of lm-projection operators is LMMAX =           8
 
 Optimization of the real space projectors (new method)

 maximal supplied QI-value         = 16.25
 optimisation between [QCUT,QGAM] = [ 11.86, 23.89] = [ 39.41,159.82] Ry 
 Optimized for a Real-space Cutoff    1.33 Angstroem

   l    n(q)    QCUT    max X(q) W(low)/X(q) W(high)/X(q)  e(spline) 
   2      9    11.864    60.317    0.17E-03    0.44E-03    0.25E-06
   2      9    11.864    55.921    0.17E-03    0.44E-03    0.25E-06
   0     10    11.864    51.690    0.19E-03    0.62E-04    0.17E-06
   0     10    11.864    30.015    0.17E-03    0.58E-04    0.15E-06
   1      9    11.864    18.849    0.12E-03    0.27E-03    0.15E-06
   1      9    11.864    14.624    0.99E-04    0.23E-03    0.13E-06
 Optimization of the real space projectors (new method)

 maximal supplied QI-value         = 24.76
 optimisation between [QCUT,QGAM] = [ 11.88, 23.77] = [ 39.54,158.16] Ry 
 Optimized for a Real-space Cutoff    1.05 Angstroem

   l    n(q)    QCUT    max X(q) W(low)/X(q) W(high)/X(q)  e(spline) 
   0      7    11.883    20.381    0.27E-03    0.30E-03    0.20E-06
   0      7    11.883    15.268    0.30E-03    0.32E-03    0.22E-06
   1      7    11.883     5.964    0.42E-03    0.18E-03    0.24E-06
   1      7    11.883     5.382    0.37E-03    0.12E-03    0.21E-06
 Optimization of the real space projectors (new method)

 maximal supplied QI-value         = 25.13
 optimisation between [QCUT,QGAM] = [ 11.81, 23.88] = [ 39.08,159.64] Ry 
 Optimized for a Real-space Cutoff    1.05 Angstroem

   l    n(q)    QCUT    max X(q) W(low)/X(q) W(high)/X(q)  e(spline) 
   0      7    11.813   115.676    0.39E-03    0.24E-03    0.23E-06
   0      7    11.813    87.132    0.39E-03    0.24E-03    0.23E-06
   1      7    11.813     4.429    0.33E-03    0.73E-04    0.17E-06
   1      7    11.813     2.733    0.26E-03    0.47E-04    0.14E-06
 -----------------------------------------------------------------------------
|                                                                             |
|               ----> ADVICE to this user running VASP <----                  |
|                                                                             |
|     You enforced a specific xc type in the INCAR file but a different       |
|     type was found in the POTCAR file.                                      |
|     I HOPE YOU KNOW WHAT YOU ARE DOING!                                     |
|                                                                             |
 -----------------------------------------------------------------------------

  PAW_PBE Ni 02Aug2007                  :
 energy of atom  1       EATOM=-1077.6739
 kinetic energy error for atom=    0.0028 (will be added to EATOM!!)
  PAW_PBE O 08Apr2002                   :
 energy of atom  2       EATOM= -432.3788
 kinetic energy error for atom=    0.0196 (will be added to EATOM!!)
  PAW_PBE C 08Apr2002                   :
 energy of atom  3       EATOM= -147.1560
 kinetic energy error for atom=    0.0067 (will be added to EATOM!!)
 
 
 POSCAR: Ni  O  C
  positions in direct lattice
  velocities in cartesian coordinates
 exchange correlation table for  LEXCH =       17
   RHO(1)=    0.500       N(1)  =     2000
   RHO(2)=  100.500       N(2)  =     4000
 


--------------------------------------------------------------------------------------------------------


 ion  position               nearest neighbor table
   1  0.000  0.000  0.383-  16 2.50  12 2.50   4 2.50   6 2.50   7 2.50   8 2.50   2 2.50   3 2.50
                            10 2.50
   2  0.333  0.000  0.383-   3 2.50   9 2.50  17 2.50  11 2.50  10 2.50   1 2.50   4 2.50   5 2.50
                             8 2.50
   3  0.667  0.000  0.383-   2 2.50   5 2.50  18 2.50  11 2.50   7 2.50   9 2.50   1 2.50   6 2.50
                            12 2.50
   4  0.000  0.333  0.383-   7 2.50   9 2.50  10 2.50  13 2.50  15 2.50   2 2.50   5 2.50   6 2.50
                             1 2.50
   5  0.333  0.333  0.383-   6 2.50   8 2.50  14 2.50   3 2.50   7 2.50  11 2.50  13 2.50   2 2.50
                             4 2.50
   6  0.667  0.333  0.383-   5 2.50   8 2.50   9 2.50  12 2.50  14 2.50  15 2.50   1 2.50   3 2.50
                             4 2.50
   7  0.000  0.667  0.383-   4 2.50   5 2.50  13 2.50  18 2.50   8 2.50   9 2.50   1 2.50   3 2.50
                            16 2.50
   8  0.333  0.667  0.383-   5 2.50   6 2.50   9 2.50  14 2.50  16 2.50  17 2.50   2 2.50   7 2.50
                             1 2.50
   9  0.667  0.667  0.383-   6 2.50   8 2.50   2 2.50   4 2.50  15 2.50  17 2.50   7 2.50   3 2.50
                            18 2.50
  10  0.111  0.111  0.461-  20 2.49  13 2.50  11 2.50  17 2.50  15 2.50   4 2.50   2 2.50  12 2.50
                            16 2.50   1 2.50  19 2.50  26 2.50
  11  0.444  0.111  0.461-  20 2.49  21 2.50  14 2.50  10 2.50  13 2.50   5 2.50   2 2.50   3 2.50
                            18 2.50  12 2.50  17 2.50  27 2.50
  12  0.778  0.111  0.461-  25 2.49  19 2.49  21 2.50  15 2.50  14 2.50   6 2.50   1 2.50  18 2.50
                            10 2.50  11 2.50  16 2.50   3 2.50
  13  0.111  0.444  0.461-  20 2.49  23 2.50  14 2.50  10 2.50  11 2.50   7 2.50   4 2.50   5 2.50
                            18 2.50  15 2.50  16 2.50  22 2.50
  14  0.444  0.444  0.461-  24 2.48  21 2.49  23 2.49  13 2.50  11 2.50   5 2.50  16 2.50  12 2.50
                             8 2.50   6 2.50  17 2.50  15 2.50
  15  0.778  0.444  0.461-  24 2.49  22 2.49  19 2.49  12 2.50  10 2.50   9 2.50   4 2.50   6 2.50
                            18 2.50  13 2.50  14 2.50  17 2.50
  16  0.111  0.778  0.461-  25 2.49  26 2.49  23 2.50  17 2.50  14 2.50   1 2.50   8 2.50  18 2.50
                            13 2.50  10 2.50  12 2.50   7 2.50
  17  0.444  0.778  0.461-  24 2.49  27 2.49  26 2.49  16 2.50  10 2.50   2 2.50   9 2.50   8 2.50
                            18 2.50  14 2.50  15 2.50  11 2.50
  18  0.778  0.778  0.461-  25 2.49  27 2.50  22 2.50   3 2.50   7 2.50  15 2.50  16 2.50  17 2.50
                            11 2.50  12 2.50  13 2.50   9 2.50
  19  0.888  0.222  0.539-  31 2.47  28 2.48  21 2.49  24 2.49  12 2.49  22 2.49  15 2.49  25 2.50
                            10 2.50  20 2.50  26 2.51  33 2.53
  20  0.222  0.222  0.539-  32 2.46  29 2.47  31 2.47  10 2.49  13 2.49  11 2.49  23 2.50  21 2.50
                            22 2.50  27 2.50  19 2.50  26 2.50
  21  0.555  0.222  0.539-  30 2.48  32 2.48  19 2.49  24 2.49  14 2.49  23 2.49  12 2.50  11 2.50
                            25 2.50  20 2.50  27 2.51  33 2.53
  22  0.888  0.555  0.539-  34 2.47  31 2.48  27 2.49  24 2.49  15 2.49  19 2.49  18 2.50  25 2.50
                            13 2.50  20 2.50  23 2.51  36 2.54
  23  0.222  0.555  0.539-  34 2.48  32 2.48  26 2.49  24 2.49  21 2.49  14 2.49  16 2.50  13 2.50
                            25 2.50  20 2.50  22 2.51  35 2.53
  24  0.555  0.555  0.538-  14 2.48  15 2.49  17 2.49  22 2.49  27 2.49  19 2.49  26 2.49  21 2.49
                            23 2.49  36 2.54  33 2.55  35 2.55
  25  0.889  0.889  0.539-  28 2.47  34 2.48  30 2.48  18 2.49  16 2.49  12 2.49  26 2.50  19 2.50
                            23 2.50  21 2.50  22 2.50  27 2.50
  26  0.222  0.888  0.539-  29 2.47  28 2.48  23 2.49  24 2.49  16 2.49  27 2.49  17 2.49  25 2.50
                            10 2.50  20 2.50  19 2.51  35 2.53
  27  0.555  0.888  0.539-  30 2.47  29 2.48  22 2.49  17 2.49  24 2.49  26 2.49  18 2.50  25 2.50
                            11 2.50  20 2.50  21 2.51  36 2.54
  28  0.999  0.999  0.616-  25 2.47  19 2.48  26 2.48  30 2.48  34 2.48  33 2.50  35 2.50  31 2.50
                            29 2.50
  29  0.331  0.003  0.616-  31 2.46  32 2.46  20 2.47  26 2.47  27 2.48  30 2.50  28 2.50  36 2.52
                            35 2.52
  30  0.667  0.999  0.616-  27 2.47  25 2.48  21 2.48  34 2.48  28 2.48  33 2.50  36 2.50  29 2.50
                            32 2.50
  31  0.003  0.331  0.616-  29 2.46  32 2.46  20 2.47  19 2.47  22 2.48  34 2.50  28 2.50  36 2.52
                            33 2.52
  32  0.331  0.331  0.616-  29 2.46  31 2.46  20 2.46  23 2.48  21 2.48  30 2.50  34 2.50  33 2.51
                            35 2.51
  33  0.666  0.333  0.619-  38 1.96  36 2.49  35 2.49  30 2.50  28 2.50  32 2.51  31 2.52  21 2.53
                            19 2.53  24 2.55
  34  0.999  0.667  0.616-  22 2.47  25 2.48  23 2.48  30 2.48  28 2.48  35 2.50  36 2.50  31 2.50
                            32 2.50
  35  0.333  0.666  0.619-  38 1.96  36 2.49  33 2.49  34 2.50  28 2.50  32 2.51  29 2.52  23 2.53
                            26 2.53  24 2.55
  36  0.666  0.666  0.619-  38 1.96  35 2.49  33 2.49  30 2.50  34 2.50  31 2.52  29 2.52  27 2.54
                            22 2.54  24 2.54
  37  0.555  0.555  0.716-  38 1.19
  38  0.555  0.555  0.670-  37 1.19  35 1.96  33 1.96  36 1.96
 

IMPORTANT INFORMATION: All symmetrisations will be switched off!
NOSYMM: (Re-)initialisation of all symmetry stuff for point group C_1.


----------------------------------------------------------------------------------------

                                     Primitive cell                                     

  volume of cell :    1268.1431

  direct lattice vectors                    reciprocal lattice vectors
     7.488260813  0.000000000  0.000000000     0.133542357 -0.077100716  0.000000000
     3.744130406  6.485024094  0.000000000     0.000000000  0.154201432  0.000000000
     0.000000000  0.000000000 26.114139351     0.000000000  0.000000000  0.038293431

  length of vectors
     7.488260813  7.488260813 26.114139351     0.154201432  0.154201432  0.038293431

  position of ions in fractional coordinates (direct lattice)
     0.000000000  0.000000000  0.382934313
     0.333333333  0.000000000  0.382934313
     0.666666667  0.000000000  0.382934313
     0.000000000  0.333333333  0.382934313
     0.333333333  0.333333333  0.382934313
     0.666666667  0.333333333  0.382934313
     0.000000000  0.666666667  0.382934313
     0.333333333  0.666666667  0.382934313
     0.666666667  0.666666667  0.382934313
     0.111111111  0.111111111  0.460978104
     0.444444444  0.111111111  0.460978104
     0.777777778  0.111111111  0.460978104
     0.111111111  0.444444444  0.460978104
     0.444444444  0.444444444  0.460978104
     0.777777778  0.444444444  0.460978104
     0.111111111  0.777777778  0.460978104
     0.444444444  0.777777778  0.460978104
     0.777777778  0.777777778  0.460978104
     0.887849300  0.222419088  0.538986928
     0.221921061  0.221927075  0.538634329
     0.555473936  0.222446893  0.538959438
     0.887849574  0.555481820  0.538982712
     0.222411467  0.555472920  0.538967174
     0.555289044  0.555280050  0.538467968
     0.888621739  0.888615071  0.538605281
     0.222419752  0.887834862  0.538992964
     0.555475714  0.887853360  0.538981032
     0.998769161  0.998825395  0.615908482
     0.330980722  0.002648459  0.615807832
     0.667045233  0.998699185  0.615885992
     0.002601579  0.331031059  0.615808412
     0.331116745  0.331117219  0.615847465
     0.665790469  0.332794325  0.618845779
     0.998669163  0.667077078  0.615887699
     0.332782868  0.665805990  0.618845635
     0.665643173  0.665687883  0.618852771
     0.554780826  0.554747264  0.715608888
     0.554618071  0.554652322  0.669992203

  ion indices of the primitive-cell ions
   primitive index   ion index
                 1           1
                 2           2
                 3           3
                 4           4
                 5           5
                 6           6
                 7           7
                 8           8
                 9           9
                10          10
                11          11
                12          12
                13          13
                14          14
                15          15
                16          16
                17          17
                18          18
                19          19
                20          20
                21          21
                22          22
                23          23
                24          24
                25          25
                26          26
                27          27
                28          28
                29          29
                30          30
                31          31
                32          32
                33          33
                34          34
                35          35
                36          36
                37          37
                38          38

----------------------------------------------------------------------------------------

 
 
 KPOINTS: KPOINTS created by Atomic Simulation Env

Automatic generation of k-mesh.
 Grid dimensions read from file:
 generate k-points for:    5    5    1

 Generating k-lattice:

  Cartesian coordinates                     Fractional coordinates (reciprocal lattice)
     0.026708471 -0.015420143  0.000000000     0.200000000 -0.000000000  0.000000000
     0.000000000  0.030840286  0.000000000     0.000000000  0.200000000  0.000000000
     0.000000000  0.000000000  0.038293431     0.000000000  0.000000000  1.000000000

  Length of vectors
     0.030840286  0.030840286  0.038293431

  Shift w.r.t. Gamma in fractional coordinates (k-lattice)
     0.000000000  0.000000000  0.000000000

 
 Subroutine IBZKPT returns following result:
 ===========================================
 
 Found     13 irreducible k-points:
 
 Following reciprocal coordinates:
            Coordinates               Weight
  0.000000  0.000000  0.000000      1.000000
  0.200000  0.000000  0.000000      2.000000
  0.200000  0.200000  0.000000      2.000000
  0.000000  0.200000  0.000000      2.000000
  0.400000  0.000000  0.000000      2.000000
  0.400000  0.400000  0.000000      2.000000
  0.000000  0.400000  0.000000      2.000000
  0.400000  0.200000  0.000000      2.000000
  0.200000  0.400000  0.000000      2.000000
 -0.200000  0.200000  0.000000      2.000000
 -0.400000  0.200000  0.000000      2.000000
  0.400000 -0.400000  0.000000      2.000000
 -0.200000  0.400000  0.000000      2.000000
 
 Following cartesian coordinates:
            Coordinates               Weight
  0.000000  0.000000  0.000000      1.000000
  0.026708 -0.015420  0.000000      2.000000
  0.026708  0.015420  0.000000      2.000000
  0.000000  0.030840  0.000000      2.000000
  0.053417 -0.030840  0.000000      2.000000
  0.053417  0.030840  0.000000      2.000000
  0.000000  0.061681  0.000000      2.000000
  0.053417  0.000000  0.000000      2.000000
  0.026708  0.046260  0.000000      2.000000
 -0.026708  0.046260  0.000000      2.000000
 -0.053417  0.061681  0.000000      2.000000
  0.053417 -0.092521  0.000000      2.000000
 -0.026708  0.077101  0.000000      2.000000
 


--------------------------------------------------------------------------------------------------------




 Dimension of arrays:
   k-points           NKPTS =     13   k-points in BZ     NKDIM =     13   number of bands    NBANDS=    234
   number of dos      NEDOS =    301   number of ions     NIONS =     38
   non local maximal  LDIM  =      6   non local SUM 2l+1 LMDIM =     18
   total plane-waves  NPLWV = 345600
   max r-space proj   IRMAX =   2750   max aug-charges    IRDMAX=   9032
   dimension x,y,z NGX =    48 NGY =   48 NGZ =  150
   dimension x,y,z NGXF=    96 NGYF=   96 NGZF=  300
   support grid    NGXF=    96 NGYF=   96 NGZF=  300
   ions per type =              36   1   1
   NGX,Y,Z   is equivalent  to a cutoff of  10.66, 10.66,  9.55 a.u.
   NGXF,Y,Z  is equivalent  to a cutoff of  21.31, 21.31, 19.10 a.u.

 SYSTEM =  unknown system                          
 POSCAR =  Ni  O  C                                

 Startparameter for this run:
   NWRITE =      2    write-flag & timer
   PREC   = normal    normal or accurate (medium, high low for compatibility)
   ISTART =      0    job   : 0-new  1-cont  2-samecut
   ICHARG =      2    charge: 1-file 2-atom 10-const
   ISPIN  =      2    spin polarized calculation?
   LNONCOLLINEAR =      F non collinear calculations
   LSORBIT =      F    spin-orbit coupling
   INIWAV =      1    electr: 0-lowe 1-rand  2-diag
   LASPH  =      F    aspherical Exc in radial PAW
 Electronic Relaxation 1
   ENCUT  =  544.0 eV  39.98 Ry    6.32 a.u.  14.24 14.24 49.66*2*pi/ulx,y,z
   ENINI  =  544.0     initial cutoff
   ENAUG  =  644.9 eV  augmentation charge cutoff
   NELM   =    150;   NELMIN=  2; NELMDL= -5     # of ELM steps 
   EDIFF  = 0.1E-06   stopping-criterion for ELM
   LREAL  =      T    real-space projection
   NLSPLINE    = F    spline interpolate recip. space projectors
   LCOMPAT=      F    compatible to vasp.4.4
   GGA_COMPAT  = T    GGA compatible to vasp.4.4-vasp.4.6
   LMAXPAW     = -100 max onsite density
   LMAXMIX     =    2 max onsite mixed and CHGCAR
   VOSKOWN=      0    Vosko Wilk Nusair interpolation
   ROPT   =   -0.00050  -0.00050  -0.00050
 Ionic relaxation
   EDIFFG = 0.0E+00   stopping-criterion for IOM
   NSW    =      0    number of steps for IOM
   NBLOCK =      1;   KBLOCK =      1    inner block; outer block 
   IBRION =     11    ionic relax: 0-MD 1-quasi-New 2-CG
   NFREE  =      0    steps in history (QN), initial steepest desc. (CG)
   ISIF   =      2    stress and relaxation
   IWAVPR =     11    prediction:  0-non 1-charg 2-wave 3-comb
   ISYM   =      0    0-nonsym 1-usesym 2-fastsym
   LCORR  =      T    Harris-Foulkes like correction to forces

   POTIM  = 0.0000    time-step for ionic-motion
   TEIN   =    0.0    initial temperature
   TEBEG  =    0.0;   TEEND  =   0.0 temperature during run
   SMASS  =  -3.00    Nose mass-parameter (am)
   estimated Nose-frequenzy (Omega)   =  0.10E-29 period in steps = 0.00E+00 mass=  -0.128E-26a.u.
   SCALEE = 1.0000    scale energy and forces
   NPACO  =    256;   APACO  = 10.0  distance and # of slots for P.C.
   PSTRESS=    0.0 pullay stress

  Mass of Ions in am
   POMASS =  58.69 16.00 12.01
  Ionic Valenz
   ZVAL   =  10.00  6.00  4.00
  Atomic Wigner-Seitz radii
   RWIGS  =  -1.00 -1.00 -1.00
  virtual crystal weights 
   VCA    =   1.00  1.00  1.00
   NELECT =     370.0000    total number of electrons
   NUPDOWN=      -1.0000    fix difference up-down

 DOS related values:
   EMIN   =  10.00;   EMAX   =-10.00  energy-range for DOS
   EFERMI =   0.00;   METHOD = LEGACY      
   ISMEAR =     1;   SIGMA  =   0.10  broadening in eV -4-tet -1-fermi 0-gaus

 Electronic relaxation 2 (details)
   IALGO  =     68    algorithm
   LDIAG  =      T    sub-space diagonalisation (order eigenvalues)
   LSUBROT=      F    optimize rotation matrix (better conditioning)
   TURBO    =      0    0=normal 1=particle mesh
   IRESTART =      0    0=no restart 2=restart with 2 vectors
   NREBOOT  =      0    no. of reboots
   NMIN     =      0    reboot dimension
   EREF     =   0.00    reference energy to select bands
   IMIX   =      4    mixing-type and parameters
     AMIX     =   0.40;   BMIX     =  1.00
     AMIX_MAG =   1.60;   BMIX_MAG =  1.00
     AMIN     =   0.10
     WC   =   100.;   INIMIX=   1;  MIXPRE=   1;  MAXMIX= -45

 Intra band minimization:
   WEIMIN = 0.0000     energy-eigenvalue tresh-hold
   EBREAK =  0.00E+00  absolut break condition
   DEPER  =   0.30     relativ break condition  

   TIME   =   0.40     timestep for ELM

  volume/ion in A,a.u.               =      33.37       225.21
  Fermi-wavevector in a.u.,A,eV,Ry     =   1.085807  2.051878 16.040955  1.178977
  Thomas-Fermi vector in A             =   2.221929
 
 Write flags
   LWAVE        =      T    write WAVECAR
   LDOWNSAMPLE  =      F    k-point downsampling of WAVECAR
   LCHARG       =      T    write CHGCAR
   LVTOT        =      F    write LOCPOT, total local potential
   LVHAR        =      F    write LOCPOT, Hartree potential only
   LELF         =      F    write electronic localiz. function (ELF)
   LORBIT       =      0    0 simple, 1 ext, 2 COOP (PROOUT), +10 PAW based schemes


 Dipole corrections
   LMONO  =      F    monopole corrections only (constant potential shift)
   LDIPOL =      F    correct potential (dipole corrections)
   IDIPOL =      0    1-x, 2-y, 3-z, 4-all directions 
   EPSILON=  1.0000000 bulk dielectric constant

 Exchange correlation treatment:
   GGA     =    BF    GGA type
   LEXCH   =    17    internal setting for exchange type
   LIBXC   =     F    Libxc                    
   VOSKOWN =     0    Vosko Wilk Nusair interpolation
   LHFCALC =     F    Hartree Fock is set to
   LHFONE  =     F    Hartree Fock one center treatment
   AEXX    =    0.0000 exact exchange contribution

 vdW DFT:
   LUSE_VDW   =     T    switch on vdW DFT
   IVDW_NL    =     1    kernel type
   LSPIN_VDW  =     F    use spin-polarized vdW DFT
   Zab_VDW    =******    correlation parameter
   PARAM1     =0.1234
   PARAM2     =1.0000
   PARAM3     =0.0000
   -- rVV10 --
   BPARAM     = 6.3000
   CPARAM     = 0.0093

 Linear response parameters
   LEPSILON=     F    determine dielectric tensor
   LRPA    =     F    only Hartree local field effects (RPA)
   LNABLA  =     F    use nabla operator in PAW spheres
   LVEL    =     F    velocity operator in full k-point grid
   CSHIFT  =0.1000    complex shift for real part using Kramers Kronig
   OMEGAMAX=  -1.0    maximum frequency
   DEG_THRESHOLD= 0.2000000E-02 threshold for treating states as degnerate
   RTIME   =   -0.100 relaxation time in fs
  (WPLASMAI=    0.000 imaginary part of plasma frequency in eV, 0.658/RTIME)
   DFIELD  = 0.0000000 0.0000000 0.0000000 field for delta impulse in time
 
  Optional k-point grid parameters
   LKPOINTS_OPT  =     F    use optional k-point grid
   KPOINTS_OPT_MODE=     1    mode for optional k-point grid
 
 Orbital magnetization related:
   ORBITALMAG=     F  switch on orbital magnetization
   LCHIMAG   =     F  perturbation theory with respect to B field
   DQ        =  0.001000  dq finite difference perturbation B field
   LLRAUG    =     F  two centre corrections for induced B field
   LBONE     =     F  B-component reconstruction in AE one-centre
   LVGVCALC  =     T  calculate vGv susceptibility
   LVGVAPPL  =     F  apply vGv susceptibility instead of pGv for G=0

 Random number generation:
   RANDOM_GENERATOR = DEFAULT
   PCG_SEED         = not used


--------------------------------------------------------------------------------------------------------


 interactive mode, write forces and read positions
   using selective dynamics as specified on POSCAR
 charge density and potential will be updated during run
 spin polarized calculation
 RMM-DIIS sequential band-by-band and
  variant of blocked Davidson during initial phase
 perform sub-space diagonalisation
    before iterative eigenvector-optimisation
 modified Broyden-mixing scheme, WC =      100.0
 initial mixing is a Kerker type mixing with AMIX =  0.4000 and BMIX =      1.0000
 Hartree-type preconditioning will be used
 using additional bands           49
 real space projection scheme for non local part
 use partial core corrections
 calculate Harris-corrections to forces 
   (improved forces if not selfconsistent)
 use gradient corrections 
 use of overlap-Matrix (Vanderbilt PP)
 Methfessel and Paxton  Order N= 1 SIGMA  =   0.10


--------------------------------------------------------------------------------------------------------


  energy-cutoff  :      544.00
  volume of cell :     1268.14
      direct lattice vectors                 reciprocal lattice vectors
     7.488260813  0.000000000  0.000000000     0.133542357 -0.077100716  0.000000000
     3.744130406  6.485024094  0.000000000     0.000000000  0.154201432  0.000000000
     0.000000000  0.000000000 26.114139351     0.000000000  0.000000000  0.038293431

  length of vectors
     7.488260813  7.488260813 26.114139351     0.154201432  0.154201432  0.038293431


 
 k-points in units of 2pi/SCALE and weight: KPOINTS created by Atomic Simulation Env
   0.00000000  0.00000000  0.00000000       0.040
   0.02670847 -0.01542014  0.00000000       0.080
   0.02670847  0.01542014  0.00000000       0.080
   0.00000000  0.03084029  0.00000000       0.080
   0.05341694 -0.03084029  0.00000000       0.080
   0.05341694  0.03084029  0.00000000       0.080
   0.00000000  0.06168057  0.00000000       0.080
   0.05341694  0.00000000  0.00000000       0.080
   0.02670847  0.04626043  0.00000000       0.080
  -0.02670847  0.04626043  0.00000000       0.080
  -0.05341694  0.06168057  0.00000000       0.080
   0.05341694 -0.09252086  0.00000000       0.080
  -0.02670847  0.07710072  0.00000000       0.080
 
 k-points in reciprocal lattice and weights: KPOINTS created by Atomic Simulation Env
   0.00000000  0.00000000  0.00000000       0.040
   0.20000000  0.00000000  0.00000000       0.080
   0.20000000  0.20000000  0.00000000       0.080
   0.00000000  0.20000000  0.00000000       0.080
   0.40000000  0.00000000  0.00000000       0.080
   0.40000000  0.40000000  0.00000000       0.080
   0.00000000  0.40000000  0.00000000       0.080
   0.40000000  0.20000000  0.00000000       0.080
   0.20000000  0.40000000  0.00000000       0.080
  -0.20000000  0.20000000  0.00000000       0.080
  -0.40000000  0.20000000  0.00000000       0.080
   0.40000000 -0.40000000  0.00000000       0.080
  -0.20000000  0.40000000  0.00000000       0.080
 
 position of ions in fractional coordinates (direct lattice) 
   0.00000000  0.00000000  0.38293431
   0.33333333  0.00000000  0.38293431
   0.66666667  0.00000000  0.38293431
   0.00000000  0.33333333  0.38293431
   0.33333333  0.33333333  0.38293431
   0.66666667  0.33333333  0.38293431
   0.00000000  0.66666667  0.38293431
   0.33333333  0.66666667  0.38293431
   0.66666667  0.66666667  0.38293431
   0.11111111  0.11111111  0.46097810
   0.44444444  0.11111111  0.46097810
   0.77777778  0.11111111  0.46097810
   0.11111111  0.44444444  0.46097810
   0.44444444  0.44444444  0.46097810
   0.77777778  0.44444444  0.46097810
   0.11111111  0.77777778  0.46097810
   0.44444444  0.77777778  0.46097810
   0.77777778  0.77777778  0.46097810
   0.88784930  0.22241909  0.53898693
   0.22192106  0.22192707  0.53863433
   0.55547394  0.22244689  0.53895944
   0.88784957  0.55548182  0.53898271
   0.22241147  0.55547292  0.53896717
   0.55528904  0.55528005  0.53846797
   0.88862174  0.88861507  0.53860528
   0.22241975  0.88783486  0.53899296
   0.55547571  0.88785336  0.53898103
   0.99876916  0.99882540  0.61590848
   0.33098072  0.00264846  0.61580783
   0.66704523  0.99869919  0.61588599
   0.00260158  0.33103106  0.61580841
   0.33111674  0.33111722  0.61584746
   0.66579047  0.33279433  0.61884578
   0.99866916  0.66707708  0.61588770
   0.33278287  0.66580599  0.61884564
   0.66564317  0.66568788  0.61885277
   0.55478083  0.55474726  0.71560889
   0.55461807  0.55465232  0.66999220
 
 position of ions in cartesian coordinates  (Angst):
   0.00000000  0.00000000 10.00000000
   2.49608694  0.00000000 10.00000000
   4.99217388  0.00000000 10.00000000
   1.24804347  2.16167470 10.00000000
   3.74413041  2.16167470 10.00000000
   6.24021734  2.16167470 10.00000000
   2.49608694  4.32334940 10.00000000
   4.99217388  4.32334940 10.00000000
   7.48826081  4.32334940 10.00000000
   1.24804347  0.72055823 12.03804645
   3.74413041  0.72055823 12.03804645
   6.24021734  0.72055823 12.03804645
   2.49608694  2.88223293 12.03804645
   4.99217388  2.88223293 12.03804645
   7.48826081  2.88223293 12.03804645
   3.74413041  5.04390763 12.03804645
   6.24021734  5.04390763 12.03804645
   8.73630428  5.04390763 12.03804645
   7.48121319  1.44239315 14.07517976
   2.49272669  1.43920243 14.06597192
   4.99240388  1.44257346 14.07446187
   8.72824554  3.60231299 14.07506964
   3.74523812  3.60225527 14.07466389
   6.23719011  3.60100450 14.06162755
   9.98132205  5.76269015 14.06521336
   4.98970662  5.75763047 14.07533737
   7.48378578  5.75775043 14.07502579
  11.21877650  6.47740675 16.08391994
   2.48838615  0.01717532 16.08129154
   8.73426867  6.47658828 16.08333262
   1.25890476  2.14674440 16.08130669
   3.71923459  2.14730314 16.08232651
   6.23163803  2.15817922 16.16062492
   9.97591873  4.32601092 16.08337719
   4.98482936  4.31776789 16.16062116
   7.47693193  4.31700196 16.16080750
   6.23138962  3.59754937 18.68751023
   6.22981539  3.59693367 17.49626974
 


--------------------------------------------------------------------------------------------------------


 k-point   1 :   0.0000 0.0000 0.0000  plane waves:   36657
 k-point   2 :   0.2000 0.0000 0.0000  plane waves:   36535
 k-point   3 :   0.2000 0.2000 0.0000  plane waves:   36535
 k-point   4 :   0.0000 0.2000 0.0000  plane waves:   36535
 k-point   5 :   0.4000 0.0000 0.0000  plane waves:   36494
 k-point   6 :   0.4000 0.4000 0.0000  plane waves:   36494
 k-point   7 :   0.0000 0.4000 0.0000  plane waves:   36494
 k-point   8 :   0.4000 0.2000 0.0000  plane waves:   36520
 k-point   9 :   0.2000 0.4000 0.0000  plane waves:   36520
 k-point  10 :  -0.2000 0.2000 0.0000  plane waves:   36520
 k-point  11 :  -0.4000 0.2000 0.0000  plane waves:   36588
 k-point  12 :   0.4000-0.4000 0.0000  plane waves:   36588
 k-point  13 :  -0.2000 0.4000 0.0000  plane waves:   36588

 maximum and minimum number of plane-waves per node :      4609     4550

 maximum number of plane-waves:     36657
 maximum index in each direction: 
   IXMAX=   14   IYMAX=   14   IZMAX=   49
   IXMIN=  -14   IYMIN=  -14   IZMIN=  -49


 real space projection operators:
  total allocation   :      13408.14 KBytes
  max/ min on nodes  :       1702.12       1657.47


 parallel 3D FFT for wavefunctions:
    minimum data exchange during FFTs selected (reduces bandwidth)
 parallel 3D FFT for charge:
    minimum data exchange during FFTs selected (reduces bandwidth)


 total amount of memory used by VASP MPI-rank0   204417. kBytes
=======================================================================

   base      :      30000. kBytes
   nonlr-proj:       3834. kBytes
   fftplans  :       5206. kBytes
   grid      :      13658. kBytes
   one-center:        155. kBytes
   wavefun   :     151564. kBytes
 
     INWAV:  cpu time      0.0000: real time      0.0001
 Broyden mixing: mesh for mixing (old mesh)
   NGX = 29   NGY = 29   NGZ = 99
  (NGX  = 96   NGY  = 96   NGZ  =300)
  gives a total of  83259 points

 initial charge density was supplied:
 charge density of overlapping atoms calculated
 number of electron     370.0000000 magnetization      22.8000000
 keeping initial charge density in first step


--------------------------------------------------------------------------------------------------------


 Maximum index for non-local projection operator          337
 Maximum index for augmentation-charges          446 (set IRDMAX)


--------------------------------------------------------------------------------------------------------


 First call to EWALD:  gamma=   0.164
 Maximum number of real-space cells 4x 4x 1
 Maximum number of reciprocal cells 2x 2x 6

    FEWALD:  cpu time      0.0011: real time      0.0011


--------------------------------------- Ionic step        1  -------------------------------------------




--------------------------------------- Iteration      1(   1)  ---------------------------------------


vdW kernel read from vdw_kernel.bindat
  0.0000  0.2424  0.5071  0.7962  1.1119  1.4567  1.8333  2.2446  2.6937  3.1842
  3.7199  4.3049  4.9438  5.6415  6.4036  7.2358  8.1446  9.1372 10.2212 11.4050
 12.6979 14.1099 15.6519 17.3360 19.1751 21.1837 23.3773 25.7729 28.3892 31.2465
 34.3669 37.7748 41.4965 45.5611 50.0000
 
    POTLOK:  cpu time      2.8628: real time      2.8839
    SETDIJ:  cpu time      0.0158: real time      0.0159
     EDDAV:  cpu time     25.5208: real time     25.7721
       DOS:  cpu time      0.0059: real time      0.0059
    --------------------------------------------
      LOOP:  cpu time     28.4053: real time     28.6779

 eigenvalue-minimisations  : 12177
 total energy-change (2. order) : 0.2973306E+04  (-0.1672447E+05)
 number of electron     370.0000000 magnetization      22.8000000
 augmentation part      370.0000000 magnetization      22.8000000

 Free energy of the ion-electron system (eV)
  ---------------------------------------------------
  alpha Z        PSCENC =       548.42346568
  Ewald energy   TEWEN  =    225388.10543610
  -Hartree energ DENC   =   -263390.84571639
  -exchange      EXHF   =         0.00000000
  -V(xc)+E(xc)   XCENC  =      1176.66050185
  PAW double counting   =     35143.83267248   -37518.60046576
  entropy T*S    EENTRO =        -0.00178092
  eigenvalues    EBANDS =      1894.30955939
  atomic energy  EATOM  =     39731.42274544
  Solvation  Ediel_sol  =         0.00000000
  ---------------------------------------------------
  free energy    TOTEN  =      2973.30641788 eV

  energy without entropy =     2973.30819880  energy(sigma->0) =     2973.30701152


--------------------------------------------------------------------------------------------------------




--------------------------------------- Iteration      1(   2)  ---------------------------------------


     EDDAV:  cpu time     25.0155: real time     25.3126
       DOS:  cpu time      0.0054: real time      0.0054
    --------------------------------------------
      LOOP:  cpu time     25.0209: real time     25.3180

 eigenvalue-minimisations  : 12168
 total energy-change (2. order) :-0.2770585E+04  (-0.2641588E+04)
 number of electron     370.0000000 magnetization      22.8000000
 augmentation part      370.0000000 magnetization      22.8000000

 Free energy of the ion-electron system (eV)
  ---------------------------------------------------
  alpha Z        PSCENC =       548.42346568
  Ewald energy   TEWEN  =    225388.10543610
  -Hartree energ DENC   =   -263390.84571639
  -exchange      EXHF   =         0.00000000
  -V(xc)+E(xc)   XCENC  =      1176.66050185
  PAW double counting   =     35143.83267248   -37518.60046576
  entropy T*S    EENTRO =         0.00170981
  eigenvalues    EBANDS =      -876.27937948
  atomic energy  EATOM  =     39731.42274544
  Solvation  Ediel_sol  =         0.00000000
  ---------------------------------------------------
  free energy    TOTEN  =       202.72096974 eV

  energy without entropy =      202.71925992  energy(sigma->0) =      202.72039980


--------------------------------------------------------------------------------------------------------




--------------------------------------- Iteration      1(   3)  ---------------------------------------


     EDDAV:  cpu time     27.7835: real time     28.0589
       DOS:  cpu time      0.0051: real time      0.0051
    --------------------------------------------
      LOOP:  cpu time     27.7886: real time     28.0640

 eigenvalue-minimisations  : 14139
 total energy-change (2. order) :-0.2891228E+03  (-0.2541596E+03)
 number of electron     370.0000000 magnetization      22.8000000
 augmentation part      370.0000000 magnetization      22.8000000

 Free energy of the ion-electron system (eV)
  ---------------------------------------------------
  alpha Z        PSCENC =       548.42346568
  Ewald energy   TEWEN  =    225388.10543610
  -Hartree energ DENC   =   -263390.84571639
  -exchange      EXHF   =         0.00000000
  -V(xc)+E(xc)   XCENC  =      1176.66050185
  PAW double counting   =     35143.83267248   -37518.60046576
  entropy T*S    EENTRO =        -0.02636262
  eigenvalues    EBANDS =     -1165.37415254
  atomic energy  EATOM  =     39731.42274544
  Solvation  Ediel_sol  =         0.00000000
  ---------------------------------------------------
  free energy    TOTEN  =       -86.40187576 eV

  energy without entropy =      -86.37551314  energy(sigma->0) =      -86.39308822


--------------------------------------------------------------------------------------------------------




--------------------------------------- Iteration      1(   4)  ---------------------------------------


     EDDAV:  cpu time     29.8566: real time     30.2243
       DOS:  cpu time      0.0050: real time      0.0050
    --------------------------------------------
      LOOP:  cpu time     29.8615: real time     30.2293

 eigenvalue-minimisations  : 15516
 total energy-change (2. order) :-0.2524604E+02  (-0.2379493E+02)
 number of electron     370.0000000 magnetization      22.8000000
 augmentation part      370.0000000 magnetization      22.8000000

 Free energy of the ion-electron system (eV)
  ---------------------------------------------------
  alpha Z        PSCENC =       548.42346568
  Ewald energy   TEWEN  =    225388.10543610
  -Hartree energ DENC   =   -263390.84571639
  -exchange      EXHF   =         0.00000000
  -V(xc)+E(xc)   XCENC  =      1176.66050185
  PAW double counting   =     35143.83267248   -37518.60046576
  entropy T*S    EENTRO =        -0.02546281
  eigenvalues    EBANDS =     -1190.62108952
  atomic energy  EATOM  =     39731.42274544
  Solvation  Ediel_sol  =         0.00000000
  ---------------------------------------------------
  free energy    TOTEN  =      -111.64791292 eV

  energy without entropy =     -111.62245011  energy(sigma->0) =     -111.63942532


--------------------------------------------------------------------------------------------------------




--------------------------------------- Iteration      1(   5)  ---------------------------------------


     EDDAV:  cpu time     26.4252: real time     26.7297
       DOS:  cpu time      0.0052: real time      0.0052
    CHARGE:  cpu time      0.7061: real time      0.7107
    MIXING:  cpu time      0.0049: real time      0.0050
    --------------------------------------------
      LOOP:  cpu time     27.1414: real time     27.4506

 eigenvalue-minimisations  : 13365
 total energy-change (2. order) :-0.9260372E+00  (-0.9162388E+00)
 number of electron     370.0000102 magnetization      22.8288742
 augmentation part      211.0699329 magnetization      19.0509275

 Broyden mixing:
  rms(total) = 0.46607E+01    rms(broyden)= 0.46605E+01
  rms(prec ) = 0.48264E+01
  weight for this iteration     100.00

 Free energy of the ion-electron system (eV)
  ---------------------------------------------------
  alpha Z        PSCENC =       548.42346568
  Ewald energy   TEWEN  =    225388.10543610
  -Hartree energ DENC   =   -263390.84571639
  -exchange      EXHF   =         0.00000000
  -V(xc)+E(xc)   XCENC  =      1176.66050185
  PAW double counting   =     35143.83267248   -37518.60046576
  entropy T*S    EENTRO =        -0.02542317
  eigenvalues    EBANDS =     -1191.54716636
  atomic energy  EATOM  =     39731.42274544
  Solvation  Ediel_sol  =         0.00000000
  ---------------------------------------------------
  free energy    TOTEN  =      -112.57395013 eV

  energy without entropy =     -112.54852696  energy(sigma->0) =     -112.56547574


--------------------------------------------------------------------------------------------------------




--------------------------------------- Iteration      1(   6)  ---------------------------------------


    POTLOK:  cpu time      2.8370: real time      2.8588
    SETDIJ:  cpu time      0.0124: real time      0.0124
    EDDIAG:  cpu time      3.2028: real time      3.2335
  RMM-DIIS:  cpu time     13.9860: real time     14.1513
    ORTHCH:  cpu time      0.6900: real time      0.6964
       DOS:  cpu time      0.0054: real time      0.0054
    CHARGE:  cpu time      0.7452: real time      0.7496
    MIXING:  cpu time      0.0046: real time      0.0047
    --------------------------------------------
      LOOP:  cpu time     21.4835: real time     21.7121

 eigenvalue-minimisations  : 13089
 total energy-change (2. order) :-0.2230224E+02  (-0.2279626E+02)
 number of electron     370.0000159 magnetization      22.7313085
 augmentation part      232.9839537 magnetization      21.8257490

 Broyden mixing:
  rms(total) = 0.76134E+01    rms(broyden)= 0.76132E+01
  rms(prec ) = 0.81746E+01
  weight for this iteration     100.00

 eigenvalues of (default mixing * dielectric matrix)
  average eigenvalue GAMMA=   0.2825
  0.2825

 Free energy of the ion-electron system (eV)
  ---------------------------------------------------
  alpha Z        PSCENC =       548.42346568
  Ewald energy   TEWEN  =    225388.10543610
  -Hartree energ DENC   =   -262916.72930902
  -exchange      EXHF   =         0.00000000
  -V(xc)+E(xc)   XCENC  =      1148.02017087
  PAW double counting   =     37337.21012510   -39623.52091361
  entropy T*S    EENTRO =         0.02678098
  eigenvalues    EBANDS =     -1747.83468854
  atomic energy  EATOM  =     39731.42274544
  Solvation  Ediel_sol  =         0.00000000
  ---------------------------------------------------
  free energy    TOTEN  =      -134.87618698 eV

  energy without entropy =     -134.90296797  energy(sigma->0) =     -134.88511398


--------------------------------------------------------------------------------------------------------




--------------------------------------- Iteration      1(   7)  ---------------------------------------


    POTLOK:  cpu time      2.4600: real time      2.5203
    SETDIJ:  cpu time      0.0119: real time      0.0119
    EDDIAG:  cpu time      3.2409: real time      3.2727
  RMM-DIIS:  cpu time     13.7686: real time     13.9303
    ORTHCH:  cpu time      0.6624: real time      0.6687
       DOS:  cpu time      0.0050: real time      0.0050
    CHARGE:  cpu time      0.6916: real time      0.6959
    MIXING:  cpu time      0.0048: real time      0.0048
    --------------------------------------------
      LOOP:  cpu time     20.8452: real time     21.1098

 eigenvalue-minimisations  : 12821
 total energy-change (2. order) : 0.1253825E+02  (-0.7774090E+01)
 number of electron     370.0000007 magnetization      22.5885139
 augmentation part      229.1618653 magnetization      20.9887770

 Broyden mixing:
  rms(total) = 0.71447E+01    rms(broyden)= 0.71445E+01
  rms(prec ) = 0.81538E+01
  weight for this iteration     100.00

 eigenvalues of (default mixing * dielectric matrix)
  average eigenvalue GAMMA=   0.3390
  0.5233  0.1548

 Free energy of the ion-electron system (eV)
  ---------------------------------------------------
  alpha Z        PSCENC =       548.42346568
  Ewald energy   TEWEN  =    225388.10543610
  -Hartree energ DENC   =   -262868.20790800
  -exchange      EXHF   =         0.00000000
  -V(xc)+E(xc)   XCENC  =      1152.72826343
  PAW double counting   =     37984.09002768   -40322.02551097
  entropy T*S    EENTRO =        -0.01808537
  eigenvalues    EBANDS =     -1736.85637198
  atomic energy  EATOM  =     39731.42274544
  Solvation  Ediel_sol  =         0.00000000
  ---------------------------------------------------
  free energy    TOTEN  =      -122.33793798 eV

  energy without entropy =     -122.31985261  energy(sigma->0) =     -122.33190953


--------------------------------------------------------------------------------------------------------




--------------------------------------- Iteration      1(   8)  ---------------------------------------


    POTLOK:  cpu time      2.2940: real time      2.3104
    SETDIJ:  cpu time      0.0112: real time      0.0112
    EDDIAG:  cpu time      3.1168: real time      3.1474
  RMM-DIIS:  cpu time     14.0320: real time     14.1955
    ORTHCH:  cpu time      0.6611: real time      0.6673
       DOS:  cpu time      0.0051: real time      0.0051
    CHARGE:  cpu time      0.7522: real time      0.7565
    MIXING:  cpu time      0.0060: real time      0.0061
    --------------------------------------------
      LOOP:  cpu time     20.8784: real time     21.0995

 eigenvalue-minimisations  : 13137
 total energy-change (2. order) :-0.3010981E+02  (-0.3165672E+01)
 number of electron     370.0000141 magnetization      22.4428510
 augmentation part      221.9942405 magnetization      21.6020133

 Broyden mixing:
  rms(total) = 0.10046E+02    rms(broyden)= 0.10046E+02
  rms(prec ) = 0.12500E+02
  weight for this iteration     100.00

 eigenvalues of (default mixing * dielectric matrix)
  average eigenvalue GAMMA=   0.2728
  0.5602  0.1509  0.1072

 Free energy of the ion-electron system (eV)
  ---------------------------------------------------
  alpha Z        PSCENC =       548.42346568
  Ewald energy   TEWEN  =    225388.10543610
  -Hartree energ DENC   =   -263107.90861327
  -exchange      EXHF   =         0.00000000
  -V(xc)+E(xc)   XCENC  =      1156.20845859
  PAW double counting   =     38730.38243295   -41119.88681175
  entropy T*S    EENTRO =         0.00024315
  eigenvalues    EBANDS =     -1479.19510726
  atomic energy  EATOM  =     39731.42274544
  Solvation  Ediel_sol  =         0.00000000
  ---------------------------------------------------
  free energy    TOTEN  =      -152.44775036 eV

  energy without entropy =     -152.44799351  energy(sigma->0) =     -152.44783141


--------------------------------------------------------------------------------------------------------




--------------------------------------- Iteration      1(   9)  ---------------------------------------


    POTLOK:  cpu time      2.6162: real time      2.6775
    SETDIJ:  cpu time      0.0111: real time      0.0112
    EDDIAG:  cpu time      3.1151: real time      3.1457
  RMM-DIIS:  cpu time     13.9376: real time     14.0991
    ORTHCH:  cpu time      0.6992: real time      0.7056
       DOS:  cpu time      0.0183: real time      0.0184
    CHARGE:  cpu time      0.7268: real time      0.7331
    MIXING:  cpu time      0.0056: real time      0.0056
    --------------------------------------------
      LOOP:  cpu time     21.1300: real time     21.3962

 eigenvalue-minimisations  : 13034
 total energy-change (2. order) : 0.4577707E+02  (-0.1869620E+01)
 number of electron     370.0000133 magnetization      22.3558605
 augmentation part      225.5260341 magnetization      19.7499694

 Broyden mixing:
  rms(total) = 0.61098E+01    rms(broyden)= 0.61096E+01
  rms(prec ) = 0.67724E+01
  weight for this iteration     100.00

 eigenvalues of (default mixing * dielectric matrix)
  average eigenvalue GAMMA=   0.2405
  0.5186  0.2621  0.1191  0.0622

 Free energy of the ion-electron system (eV)
  ---------------------------------------------------
  alpha Z        PSCENC =       548.42346568
  Ewald energy   TEWEN  =    225388.10543610
  -Hartree energ DENC   =   -263176.96211173
  -exchange      EXHF   =         0.00000000
  -V(xc)+E(xc)   XCENC  =      1155.72576238
  PAW double counting   =     38992.19687229   -41396.35848251
  entropy T*S    EENTRO =        -0.01287260
  eigenvalues    EBANDS =     -1349.21149239
  atomic energy  EATOM  =     39731.42274544
  Solvation  Ediel_sol  =         0.00000000
  ---------------------------------------------------
  free energy    TOTEN  =      -106.67067735 eV

  energy without entropy =     -106.65780475  energy(sigma->0) =     -106.66638648


--------------------------------------------------------------------------------------------------------




--------------------------------------- Iteration      1(  10)  ---------------------------------------


    POTLOK:  cpu time      2.4988: real time      2.5329
    SETDIJ:  cpu time      0.0110: real time      0.0111
    EDDIAG:  cpu time      3.1848: real time      3.2167
  RMM-DIIS:  cpu time     13.7770: real time     13.9380
    ORTHCH:  cpu time      0.6949: real time      0.7013
       DOS:  cpu time      0.0048: real time      0.0048
    CHARGE:  cpu time      0.7133: real time      0.7176
    MIXING:  cpu time      0.0061: real time      0.0061
    --------------------------------------------
      LOOP:  cpu time     20.8907: real time     21.1286

 eigenvalue-minimisations  : 12847
 total energy-change (2. order) : 0.6890681E+01  (-0.1882370E+01)
 number of electron     370.0000124 magnetization      21.9017404
 augmentation part      225.9138348 magnetization      19.3087487

 Broyden mixing:
  rms(total) = 0.53273E+01    rms(broyden)= 0.53271E+01
  rms(prec ) = 0.58371E+01
  weight for this iteration     100.00

 eigenvalues of (default mixing * dielectric matrix)
  average eigenvalue GAMMA=   0.4023
  0.9921  0.7173  0.1202  0.1202  0.0617

 Free energy of the ion-electron system (eV)
  ---------------------------------------------------
  alpha Z        PSCENC =       548.42346568
  Ewald energy   TEWEN  =    225388.10543610
  -Hartree energ DENC   =   -263141.87436245
  -exchange      EXHF   =         0.00000000
  -V(xc)+E(xc)   XCENC  =      1155.95623602
  PAW double counting   =     39179.51240375   -41590.10350414
  entropy T*S    EENTRO =         0.01574554
  eigenvalues    EBANDS =     -1371.23816249
  atomic energy  EATOM  =     39731.42274544
  Solvation  Ediel_sol  =         0.00000000
  ---------------------------------------------------
  free energy    TOTEN  =       -99.77999655 eV

  energy without entropy =      -99.79574209  energy(sigma->0) =      -99.78524506


--------------------------------------------------------------------------------------------------------




--------------------------------------- Iteration      1(  11)  ---------------------------------------


    POTLOK:  cpu time      2.5365: real time      2.5963
    SETDIJ:  cpu time      0.0111: real time      0.0112
    EDDIAG:  cpu time      3.1050: real time      3.1350
  RMM-DIIS:  cpu time     14.2448: real time     14.4126
    ORTHCH:  cpu time      0.6644: real time      0.6706
       DOS:  cpu time      0.0049: real time      0.0049
    CHARGE:  cpu time      0.6936: real time      0.6980
    MIXING:  cpu time      0.0058: real time      0.0059
    --------------------------------------------
      LOOP:  cpu time     21.2660: real time     21.5345

 eigenvalue-minimisations  : 13279
 total energy-change (2. order) :-0.3773799E+01  (-0.1747679E+01)
 number of electron     370.0000060 magnetization      21.7626061
 augmentation part      224.1377482 magnetization      18.6241336

 Broyden mixing:
  rms(total) = 0.58394E+01    rms(broyden)= 0.58393E+01
  rms(prec ) = 0.63029E+01
  weight for this iteration     100.00

 eigenvalues of (default mixing * dielectric matrix)
  average eigenvalue GAMMA=   0.3977
  1.2527  0.6740  0.1758  0.1099  0.1099  0.0640

 Free energy of the ion-electron system (eV)
  ---------------------------------------------------
  alpha Z        PSCENC =       548.42346568
  Ewald energy   TEWEN  =    225388.10543610
  -Hartree energ DENC   =   -263139.55270174
  -exchange      EXHF   =         0.00000000
  -V(xc)+E(xc)   XCENC  =      1156.80074697
  PAW double counting   =     40364.87363286   -42819.65317182
  entropy T*S    EENTRO =        -0.00062749
  eigenvalues    EBANDS =     -1333.97332151
  atomic energy  EATOM  =     39731.42274544
  Solvation  Ediel_sol  =         0.00000000
  ---------------------------------------------------
  free energy    TOTEN  =      -103.55379552 eV

  energy without entropy =     -103.55316802  energy(sigma->0) =     -103.55358635


--------------------------------------------------------------------------------------------------------




--------------------------------------- Iteration      1(  12)  ---------------------------------------


    POTLOK:  cpu time      2.4651: real time      2.4813
    SETDIJ:  cpu time      0.0110: real time      0.0111
    EDDIAG:  cpu time      3.1309: real time      3.1642
  RMM-DIIS:  cpu time     13.5900: real time     13.7466
    ORTHCH:  cpu time      0.6646: real time      0.6708
       DOS:  cpu time      0.0051: real time      0.0051
    CHARGE:  cpu time      0.6988: real time      0.7028
    MIXING:  cpu time      0.0063: real time      0.0064
    --------------------------------------------
      LOOP:  cpu time     20.5717: real time     20.7882

 eigenvalue-minimisations  : 12711
 total energy-change (2. order) : 0.2748031E+01  (-0.1202820E+01)
 number of electron     370.0000055 magnetization      21.6445657
 augmentation part      224.4090027 magnetization      18.8027186

 Broyden mixing:
  rms(total) = 0.55918E+01    rms(broyden)= 0.55918E+01
  rms(prec ) = 0.61453E+01
  weight for this iteration     100.00

 eigenvalues of (default mixing * dielectric matrix)
  average eigenvalue GAMMA=   0.3822
  1.3649  0.6436  0.2886  0.1144  0.1144  0.0624  0.0875

 Free energy of the ion-electron system (eV)
  ---------------------------------------------------
  alpha Z        PSCENC =       548.42346568
  Ewald energy   TEWEN  =    225388.10543610
  -Hartree energ DENC   =   -263149.92687515
  -exchange      EXHF   =         0.00000000
  -V(xc)+E(xc)   XCENC  =      1156.51729596
  PAW double counting   =     40636.81104631   -43100.42149730
  entropy T*S    EENTRO =        -0.01058999
  eigenvalues    EBANDS =     -1311.72679140
  atomic energy  EATOM  =     39731.42274544
  Solvation  Ediel_sol  =         0.00000000
  ---------------------------------------------------
  free energy    TOTEN  =      -100.80576433 eV

  energy without entropy =     -100.79517435  energy(sigma->0) =     -100.80223434


--------------------------------------------------------------------------------------------------------




--------------------------------------- Iteration      1(  13)  ---------------------------------------


    POTLOK:  cpu time      2.8079: real time      2.8747
    SETDIJ:  cpu time      0.0110: real time      0.0111
    EDDIAG:  cpu time      3.1069: real time      3.1367
  RMM-DIIS:  cpu time     13.5224: real time     13.6785
    ORTHCH:  cpu time      0.6628: real time      0.6690
       DOS:  cpu time      0.0051: real time      0.0051
    CHARGE:  cpu time      0.7008: real time      0.7051
    MIXING:  cpu time      0.0063: real time      0.0064
    --------------------------------------------
      LOOP:  cpu time     20.8232: real time     21.0868

 eigenvalue-minimisations  : 12650
 total energy-change (2. order) : 0.4032743E+01  (-0.5514359E+00)
 number of electron     370.0000082 magnetization      21.4354258
 augmentation part      224.4106106 magnetization      18.5803688

 Broyden mixing:
  rms(total) = 0.40923E+01    rms(broyden)= 0.40922E+01
  rms(prec ) = 0.44276E+01
  weight for this iteration     100.00

 eigenvalues of (default mixing * dielectric matrix)
  average eigenvalue GAMMA=   0.4025
  1.5872  0.5611  0.5611  0.1472  0.1176  0.1176  0.0641  0.0641

 Free energy of the ion-electron system (eV)
  ---------------------------------------------------
  alpha Z        PSCENC =       548.42346568
  Ewald energy   TEWEN  =    225388.10543610
  -Hartree energ DENC   =   -263175.73233705
  -exchange      EXHF   =         0.00000000
  -V(xc)+E(xc)   XCENC  =      1156.20496814
  PAW double counting   =     40783.61563386   -43252.17504766
  entropy T*S    EENTRO =        -0.00316917
  eigenvalues    EBANDS =     -1276.63471702
  atomic energy  EATOM  =     39731.42274544
  Solvation  Ediel_sol  =         0.00000000
  ---------------------------------------------------
  free energy    TOTEN  =       -96.77302168 eV

  energy without entropy =      -96.76985251  energy(sigma->0) =      -96.77196529


--------------------------------------------------------------------------------------------------------




--------------------------------------- Iteration      1(  14)  ---------------------------------------


    POTLOK:  cpu time      2.5153: real time      2.5317
    SETDIJ:  cpu time      0.0108: real time      0.0109
    EDDIAG:  cpu time      3.0871: real time      3.1210
  RMM-DIIS:  cpu time     14.0103: real time     14.1717
    ORTHCH:  cpu time      0.6770: real time      0.6834
       DOS:  cpu time      0.0049: real time      0.0050
    CHARGE:  cpu time      0.7065: real time      0.7111
    MIXING:  cpu time      0.0068: real time      0.0069
    --------------------------------------------
      LOOP:  cpu time     21.0188: real time     21.2417

 eigenvalue-minimisations  : 13039
 total energy-change (2. order) : 0.3846288E+01  (-0.3405701E+00)
 number of electron     370.0000120 magnetization      21.4075716
 augmentation part      224.7273404 magnetization      18.5672673

 Broyden mixing:
  rms(total) = 0.33742E+01    rms(broyden)= 0.33741E+01
  rms(prec ) = 0.38365E+01
  weight for this iteration     100.00

 eigenvalues of (default mixing * dielectric matrix)
  average eigenvalue GAMMA=   0.3728
  1.6157  0.5631  0.5631  0.1185  0.1185  0.1209  0.1209  0.0624  0.0723

 Free energy of the ion-electron system (eV)
  ---------------------------------------------------
  alpha Z        PSCENC =       548.42346568
  Ewald energy   TEWEN  =    225388.10543610
  -Hartree energ DENC   =   -263218.67532145
  -exchange      EXHF   =         0.00000000
  -V(xc)+E(xc)   XCENC  =      1155.66845577
  PAW double counting   =     41034.11678327   -43510.67647325
  entropy T*S    EENTRO =         0.01164720
  eigenvalues    EBANDS =     -1221.32347228
  atomic energy  EATOM  =     39731.42274544
  Solvation  Ediel_sol  =         0.00000000
  ---------------------------------------------------
  free energy    TOTEN  =       -92.92673351 eV

  energy without entropy =      -92.93838071  energy(sigma->0) =      -92.93061591


--------------------------------------------------------------------------------------------------------




--------------------------------------- Iteration      1(  15)  ---------------------------------------


    POTLOK:  cpu time      2.6346: real time      2.6890
    SETDIJ:  cpu time      0.0110: real time      0.0111
    EDDIAG:  cpu time      3.0951: real time      3.1252
  RMM-DIIS:  cpu time     13.7564: real time     13.9204
    ORTHCH:  cpu time      0.6874: real time      0.6937
       DOS:  cpu time      0.0050: real time      0.0050
    CHARGE:  cpu time      0.7018: real time      0.7061
    MIXING:  cpu time      0.0076: real time      0.0077
    --------------------------------------------
      LOOP:  cpu time     20.8988: real time     21.1581

 eigenvalue-minimisations  : 12827
 total energy-change (2. order) : 0.6697653E+00  (-0.1283110E+00)
 number of electron     370.0000124 magnetization      21.3908176
 augmentation part      224.6387227 magnetization      18.6849696

 Broyden mixing:
  rms(total) = 0.28855E+01    rms(broyden)= 0.28855E+01
  rms(prec ) = 0.32894E+01
  weight for this iteration     100.00

 eigenvalues of (default mixing * dielectric matrix)
  average eigenvalue GAMMA=   0.3619
  1.6452  0.5559  0.5559  0.2000  0.2000  0.1198  0.1198  0.0934  0.0644  0.0644

 Free energy of the ion-electron system (eV)
  ---------------------------------------------------
  alpha Z        PSCENC =       548.42346568
  Ewald energy   TEWEN  =    225388.10543610
  -Hartree energ DENC   =   -263223.01502867
  -exchange      EXHF   =         0.00000000
  -V(xc)+E(xc)   XCENC  =      1155.56288085
  PAW double counting   =     41077.37200669   -43555.17956512
  entropy T*S    EENTRO =         0.00455636
  eigenvalues    EBANDS =     -1214.95346554
  atomic energy  EATOM  =     39731.42274544
  Solvation  Ediel_sol  =         0.00000000
  ---------------------------------------------------
  free energy    TOTEN  =       -92.25696821 eV

  energy without entropy =      -92.26152457  energy(sigma->0) =      -92.25848700


--------------------------------------------------------------------------------------------------------




--------------------------------------- Iteration      1(  16)  ---------------------------------------


    POTLOK:  cpu time      2.4952: real time      2.5117
    SETDIJ:  cpu time      0.0110: real time      0.0111
    EDDIAG:  cpu time      3.0752: real time      3.1072
  RMM-DIIS:  cpu time     14.0233: real time     14.1863
    ORTHCH:  cpu time      0.6768: real time      0.6831
       DOS:  cpu time      0.0054: real time      0.0054
    CHARGE:  cpu time      0.7337: real time      0.7383
    MIXING:  cpu time      0.0080: real time      0.0080
    --------------------------------------------
      LOOP:  cpu time     21.0286: real time     21.2511

 eigenvalue-minimisations  : 13045
 total energy-change (2. order) : 0.6784222E+00  (-0.8049643E-01)
 number of electron     370.0000119 magnetization      21.3923852
 augmentation part      224.5358635 magnetization      19.0965791

 Broyden mixing:
  rms(total) = 0.18766E+01    rms(broyden)= 0.18766E+01
  rms(prec ) = 0.21358E+01
  weight for this iteration     100.00

 eigenvalues of (default mixing * dielectric matrix)
  average eigenvalue GAMMA=   0.3607
  1.6655  0.5440  0.5440  0.3072  0.3072  0.1520  0.1186  0.1186  0.0811  0.0641
  0.0658

 Free energy of the ion-electron system (eV)
  ---------------------------------------------------
  alpha Z        PSCENC =       548.42346568
  Ewald energy   TEWEN  =    225388.10543610
  -Hartree energ DENC   =   -263228.52889358
  -exchange      EXHF   =         0.00000000
  -V(xc)+E(xc)   XCENC  =      1155.54269364
  PAW double counting   =     41123.72179012   -43602.79204283
  entropy T*S    EENTRO =        -0.01074193
  eigenvalues    EBANDS =     -1207.46299870
  atomic energy  EATOM  =     39731.42274544
  Solvation  Ediel_sol  =         0.00000000
  ---------------------------------------------------
  free energy    TOTEN  =       -91.57854605 eV

  energy without entropy =      -91.56780413  energy(sigma->0) =      -91.57496541


--------------------------------------------------------------------------------------------------------




--------------------------------------- Iteration      1(  17)  ---------------------------------------


    POTLOK:  cpu time      2.5123: real time      2.5755
    SETDIJ:  cpu time      0.0109: real time      0.0110
    EDDIAG:  cpu time      3.1106: real time      3.1408
  RMM-DIIS:  cpu time     13.9515: real time     14.1167
    ORTHCH:  cpu time      0.6842: real time      0.6907
       DOS:  cpu time      0.0051: real time      0.0051
    CHARGE:  cpu time      0.7292: real time      0.7338
    MIXING:  cpu time      0.0079: real time      0.0079
    --------------------------------------------
      LOOP:  cpu time     21.0117: real time     21.2815

 eigenvalue-minimisations  : 13050
 total energy-change (2. order) : 0.2784025E-01  (-0.6719468E-01)
 number of electron     370.0000112 magnetization      21.4630385
 augmentation part      224.4952665 magnetization      19.2495319

 Broyden mixing:
  rms(total) = 0.15936E+01    rms(broyden)= 0.15936E+01
  rms(prec ) = 0.17726E+01
  weight for this iteration     100.00

 eigenvalues of (default mixing * dielectric matrix)
  average eigenvalue GAMMA=   0.3999
[...]
             -0.192708405214284E+03
              0.772712022585343E+03
             -0.202488277895366E+03
             -0.291508556901140E+03
              0.263928286302319E+03
             -0.122906962586495E+03
              0.365806123489294E+03
             -0.475661201951284E+02
              0.850794720486284E+03
              0.425440160192142E+03
             -0.112681813416426E+02
             -0.304664644845659E+03
              0.208639717606474E+03
             -0.468707134779727E+03
             -0.991613527914858E+02
              0.514078167995180E+03
             -0.237321761030710E+03
             -0.399197335022976E+03
             -0.188206335329710E+03
              0.439234165832741E+03
              0.123393057553877E+03
             -0.701661417330655E+03
              0.258266415230059E+03
              0.126816613359049E+03
              0.580235197306783E+02
             -0.433016373555010E+03
              0.137729717562738E+02
              0.296519697493405E+03
              0.431643514392718E+03
              0.541325200845233E+03
              0.219595976832989E+03
              0.344642468044988E+02
             -0.429192593742359E+03
             -0.405118946980683E+03
             -0.629467863053644E+03
             -0.774708739852704E+02
              0.267011146919731E+03
             -0.207662424032382E+02
              0.453721417780751E+03
             -0.267753722244242E+03
              0.155620778152565E+03
             -0.100665348734761E+03
             -0.251960220802567E+03
              0.500024076690127E+03
              0.646292233511535E+02
              0.518595076389430E+03
              0.242737652665846E+02
              0.211077450435949E+03
             -0.169125884828599E+03
              0.529270953835889E+03
             -0.101359339905160E+03
             -0.327825035148760E+01
             -0.661293148163043E+03
             -0.915669324959531E+02
              0.615477632670291E+03
              0.563062253753292E+03
              0.223522911373109E+03
             -0.127609625940226E+03
              0.327298756118541E+02
             -0.149441254514929E+03
             -0.477331315470742E+02
              0.760796974142900E+03
              0.152422470868141E+02
             -0.199890954559821E+03
             -0.933528973145826E+03
             -0.459369389951085E+03
             -0.318043402173143E+03
             -0.567378644667285E+03
             -0.474651558462248E+03
             -0.601047328883833E+03
             -0.392645885442041E+03
             -0.322861561231386E+03
             -0.406369297016164E+03
              0.403673781613581E+03
             -0.215768184603158E+03
             -0.820143393769070E+03
              0.337211598793743E+03
             -0.243914010923378E+03
             -0.695097702395620E+03
              0.820597323359573E+03
             -0.203759243753778E+03
              0.167360931166595E+03
              0.344823030113094E+03
              0.698146383687163E+01
              0.221071203120875E+03
              0.705055631326854E+01
             -0.126242469457781E+02
             -0.115754119168011E+03
             -0.612697867414327E+03
              0.896753270682585E+02
             -0.110373831392961E+04
              0.552807057645153E+03
             -0.371226254224789E+03
             -0.117438996018771E+03
             -0.150874063131433E+03
              0.872328079870443E+02
             -0.159765064327237E+03
              0.242569773223970E+03
             -0.455385296776051E+03
              0.320560265440872E+03
              0.330532475621267E+03
              0.131764324752594E+03
              0.833812971616376E+02
              0.168048046294400E+03
              0.627584056209998E+02
              0.256144432747970E+03
             -0.803355934026411E+02
             -0.529660335911219E+03
              0.827330495789088E+02
             -0.194412428025867E+03
             -0.381797743183852E+02
              0.421706904815239E+03
             -0.686441722856499E+03
              0.823839523432116E+01
              0.114343605294926E+02
              0.732793866589391E+02
              0.281480796779994E+03
             -0.117018266385784E+03
              0.712593797711351E+03
              0.410412134100508E+03
             -0.148636221317707E+03
             -0.899569050377995E+02
              0.160381611836199E+02
              0.660058032836133E+03
             -0.472771988497402E+03
             -0.882328522078646E+03
              0.244823702764635E+03
             -0.103486066744933E+03
             -0.106623429913554E+03
              0.142411123283911E+03
              0.662843664163747E+03
              0.404475016371403E+03
             -0.149076652929822E+03
             -0.427619411047056E+03
             -0.509357642863740E+02
              0.249263647193964E+03
             -0.111111244244882E+03
             -0.630632280928989E+03
             -0.238512054531761E+02
             -0.787741964927545E+03
             -0.413553789720873E+03
              0.674227185741332E+03
             -0.434526372175839E+03
             -0.563256178154713E+03
             -0.440657752739078E+03
             -0.299738048874479E+03
              0.283444619509179E+03
              0.698685726363667E+03
             -0.431494465203577E+02
              0.233745611385616E+03
             -0.152322009154633E+03
             -0.591793127275722E+03
              0.396366187210910E+03
             -0.386570038951274E+03
              0.240470534278027E+03
              0.307658510274298E+03
             -0.625991824198159E+02
              0.349694402148858E+03
              0.372080611497371E+03
              0.911779640822582E+03
             -0.126476436069143E+03
             -0.390962796721996E+03
             -0.541048105855288E+03
             -0.128320250869591E+03
             -0.218941544935104E+03
              0.861806101503512E+03
             -0.375835557070032E+03
              0.865627442427193E+02
              0.632476513561737E+02
             -0.222670988444086E+03
             -0.688157860347835E+03
             -0.550045121169455E+02
              0.829415203216094E+03
              0.924224310370449E+02
              0.600110611017626E+02
             -0.454869315155158E+03
             -0.515484647723748E+03
             -0.829929965892113E+02
              0.411754255061448E+03
             -0.189473456531533E+03
              0.905035294830296E+03
             -0.372380193039281E+03
              0.144017254808233E+03
             -0.176762006148690E+03
             -0.582801848999266E+03
              0.258999159881432E+02
             -0.434091291184930E+03
             -0.632928108821325E+03
              0.698439015237227E+02
              0.202859179813724E+02
              0.439568876194306E+03
              0.177810442060052E+03
             -0.287536113678059E+03
              0.191822913610527E+03
             -0.700910553305786E+03
             -0.450081388239870E+03
              0.770089316647286E+03
              0.111239308585990E+03
             -0.121133728892906E+03
             -0.274770111090783E+03
             -0.397131758914111E+02
             -0.664924484167468E+02
              0.722071677232600E+03
              0.347808026117762E+03
             -0.125399219566533E+03
             -0.600165078278369E+02
             -0.342407332993045E+03
             -0.173240843707265E+03
             -0.572335545130995E+03
              0.406711095318424E+03
              0.635331321262613E+02
              0.118135232105948E+03
              0.129076013073314E+03
             -0.462804027930856E+02
             -0.155415282537620E+03
             -0.509665259666559E+01
             -0.903772291235529E+03
             -0.162846157465117E+03
             -0.687677916640450E+02
             -0.782872584127215E+02
              0.467077009153008E+03
              0.537188953294996E+03
              0.137591237688977E+03
             -0.814470336240470E+03
              0.544439091064604E+03
             -0.169573373731708E+03
             -0.328422653121237E+03
             -0.742241990307226E+03
             -0.277552361291311E+03
              0.501407220618762E+03
              0.231623177949524E+03
              0.580969983055234E+02
              0.260653423010699E+03
             -0.496225708927021E+03
             -0.377497225132855E+03
              0.469521061298626E+03
              0.324496131698912E+03
              0.440104591060629E+03
             -0.239106101287393E+01
              0.582165999499825E+02
              0.471445703344125E+03
              0.840548921871728E+03
             -0.210239519239523E+03
              0.321310653889377E+03
             -0.142605564808642E+03
             -0.356728786598086E+03
             -0.291172464708800E+03
             -0.260354388358387E+03
             -0.127877235573193E+03
             -0.435005559547369E+03
             -0.199632594328033E+03
             -0.118710513491963E+04
              0.290179376957902E+03
              0.165290765172354E+03
             -0.315181079235327E+02
             -0.353308658721356E+03
             -0.190876802220178E+03
             -0.458804812666106E+03
              0.100105039010910E+03
              0.701070634497486E+03
             -0.176752935507479E+03
             -0.139654404353793E+03
              0.186892935157836E+03
             -0.412242842423904E+03
              0.738519748674288E+03
              0.141202621654337E+03
              0.158721868269967E+03
              0.439498550427802E+03
              0.157568073381135E+02
              0.477754688889387E+03
              0.139797307009801E+03
             -0.735844657658165E+02
              0.797934475819372E+02
             -0.182963490956345E+02
              0.592075718323467E+03
              0.769691605882749E+02
              0.125438149182293E+03
             -0.764627467937016E+02
              0.113279949595048E+03
             -0.787534752045440E+03
             -0.316453996039001E+03
             -0.392839668313336E+03
              0.436692470699687E+03
             -0.248563128473925E+03
             -0.548701889344038E+03
              0.500381010683797E+03
             -0.102265257049858E+03
              0.372347440902915E+03
             -0.777989856069772E+03
              0.210994004517740E+03
              0.654416567818316E+02
              0.506426713674418E+02
             -0.754538221042881E+02
             -0.553715692851329E+02
              0.419514230146308E+03
             -0.247791247466648E+01
             -0.421061259340466E+03
             -0.135955595538430E+03
              0.215757768851881E+03
             -0.994430119378728E+03
             -0.791506755602357E+03
              0.129596961515767E+02
              0.949087523665640E+02
             -0.369724567917869E+03
             -0.362539136313931E+02
              0.924590351639111E+03
              0.280533731473200E+03
             -0.478384485250363E+03
              0.802201985768611E+02
             -0.762124506310485E+02
              0.880892021664981E+02
             -0.292246938735454E+03
              0.157995564645903E+03
              0.242267283530540E+03
             -0.574149583820631E+02
              0.959338331082444E+03
             -0.913970266444755E+02
             -0.273740469758016E+03
              0.161554868422832E+03
              0.351956799462148E+03
             -0.302001269594677E+03
             -0.253298861471898E+02
              0.816999313858052E+03
             -0.202215912835427E+02
              0.502905969764952E+03
              0.121606640213570E+03
             -0.823868511751539E+02
             -0.225643013485786E+03
              0.486221456112150E+03
             -0.468067844254066E+03
             -0.179096671348684E+02
             -0.127653733771330E+03
             -0.360402474119024E+03
              0.143569022090867E+03
              0.203024921199201E+03
              0.765835863305256E+02
             -0.137834460466311E+02
             -0.329892002446451E+03
              0.157970316336143E+03
             -0.150737743125303E+02
             -0.213985010239417E+03
             -0.184530133510059E+03
              0.168006275775633E+03
             -0.425333907575232E+02
             -0.312093943881278E+03
             -0.907749149813646E+03
              0.784420074590505E+02
              0.199754065716667E+03
             -0.398977302975889E+03
             -0.192329995070704E+03
              0.703311664339538E+03
              0.617077892775983E+02
              0.300000239034645E+03
              0.554011609485053E+02
              0.314589600318189E+03
              0.439392580478466E+02
             -0.336261549796162E+03
             -0.323232138174908E+02
              0.711799415486494E+02
              0.237112071788230E+03
              0.684730027828023E+03
              0.420015217352373E+03
              0.177873510064314E+02
              0.146766172320522E+03
              0.514935850597581E+03
              0.223457252550228E+03
             -0.619711310815101E+03
             -0.228378633564140E+03
              0.114937814920195E+03
              0.730165087767264E+02
              0.225542610241938E+03
             -0.448543624066052E+03
              0.109007775532002E+03
              0.342779501790575E+03
              0.421480300682862E+03
             -0.382746808165149E+03
             -0.452978059224570E+02
             -0.195945364534045E+02
             -0.115254526556998E+03
             -0.284406281248964E+03
             -0.169458907440833E+03
             -0.272562067179956E+02
              0.679862280971770E+02
              0.352848886660963E+03
             -0.265409531179449E+03
              0.683115219765736E+03
              0.303844812285311E+03
              0.215179213878672E+03
              0.283658635137710E+03
              0.259778633685507E+03
              0.280148312107163E+03
              0.461307894795776E+03
             -0.377220349939451E+03
              0.540103237258106E+03
             -0.950217896148123E+03
              0.265350314307383E+03
             -0.928612076580883E+03
              0.719844330350298E+03
              0.620054546684304E+03
             -0.995521275461715E+02
             -0.420006906213277E+03
             -0.360964508187287E+03
             -0.492030342796760E+03
             -0.529057308008142E+03
              0.491123249721447E+03
              0.366948128148696E+03
              0.206557583240941E+03
              0.271886153214014E+03
              0.347188720218456E+03
             -0.328311105165323E+03
             -0.172933568941072E+03
              0.490535321711211E+03
             -0.106255564989451E+03
              0.452677073304403E+03
              0.624330700543606E+03
             -0.370105359892235E+02
             -0.615122115837697E+03
              0.116236772351331E+02
             -0.115694255290416E+02
             -0.837963604717743E+02
              0.644767340175122E+01
             -0.573608800720292E+03
             -0.158441564380077E+03
              0.499246416673915E+02
              0.754080779911790E+02
              0.413555913944011E+03
             -0.341625354770217E+03
              0.523606065952658E+03
             -0.345757224252310E+03
              0.189241861054425E+03
              0.332430109643502E+03
 BEEF xc energy contributions
           1 :   -6493.11965533977     
           2 :    5801.36030984509     
           3 :   -4669.78102687565     
           4 :    3460.34011102054     
           5 :   -2464.41354843232     
           6 :    1791.60787383596     
           7 :   -1377.10011139311     
           8 :    1080.19027950853     
           9 :   -795.949927704842     
          10 :    508.224719976089     
          11 :   -265.081376473314     
          12 :    113.981467285568     
          13 :   -54.1042679858935     
          14 :    38.0390601201858     
          15 :   -11.4114647810644     
          16 :   -47.5752916059126     
          17 :    119.621000926187     
          18 :   -168.535269697946     
          19 :    174.140208895544     
          20 :   -147.092718877249     
          21 :    117.061759956893     
          22 :   -107.687421036188     
          23 :    119.882818381749     
          24 :   -135.354679046841     
          25 :    134.709064027693     
          26 :   -113.853466880580     
          27 :    85.8238905500693     
          28 :   -68.3708016349669     
          29 :    68.9605799554592     
          30 :   -79.6776987149184     
          31 :   -711.053113735582     
          32 :   -511.816410211094     
    POTLOK:  cpu time      4.5543: real time      4.6063


--------------------------------------------------------------------------------------------------------


  positions in direct lattice
     0.0000000     0.0000000     0.3829343
     0.3333333     0.0000000     0.3829343
     0.6666667     0.0000000     0.3829343
     0.0000000     0.3333333     0.3829343
     0.3333333     0.3333333     0.3829343
     0.6666667     0.3333333     0.3829343
     0.0000000     0.6666667     0.3829343
     0.3333333     0.6666667     0.3829343
     0.6666667     0.6666667     0.3829343
     0.1111111     0.1111111     0.4609781
     0.4444444     0.1111111     0.4609781
     0.7777778     0.1111111     0.4609781
     0.1111111     0.4444444     0.4609781
     0.4444444     0.4444444     0.4609781
     0.7777778     0.4444444     0.4609781
     0.1111111     0.7777778     0.4609781
     0.4444444     0.7777778     0.4609781
     0.7777778     0.7777778     0.4609781
     0.8878493     0.2224191     0.5389869
     0.2219211     0.2219271     0.5386343
     0.5554739     0.2224469     0.5389594
     0.8878496     0.5554818     0.5389827
     0.2224115     0.5554729     0.5389672
     0.5552890     0.5552801     0.5384680
     0.8886217     0.8886151     0.5386053
     0.2224198     0.8878349     0.5389930
     0.5554757     0.8878534     0.5389810
     0.9987692     0.9988254     0.6159085
     0.3309807     0.0026485     0.6158078
     0.6670452     0.9986992     0.6158860
     0.0026016     0.3310311     0.6158084
     0.3311167     0.3311172     0.6158475
     0.6657905     0.3327943     0.6188458
     0.9986692     0.6670771     0.6158877
     0.3327829     0.6658060     0.6188456
     0.6656432     0.6656879     0.6188528
     0.5547808     0.5547473     0.7156089
     0.5546181     0.5546523     0.6699922


--------------------------------------------------------------------------------------------------------


  
 reached required accuracy - stopping structural energy minimisation
 writing wavefunctions
     LOOP+:  cpu time   2070.7160: real time   2095.4540
    4ORBIT:  cpu time      0.0000: real time      0.0000

 total amount of memory used by VASP MPI-rank0   204417. kBytes
=======================================================================

   base      :      30000. kBytes
   nonlr-proj:       3834. kBytes
   fftplans  :       5206. kBytes
   grid      :      13658. kBytes
   one-center:        155. kBytes
   wavefun   :     151564. kBytes
 
  
  
 General timing and accounting informations for this job:
 ========================================================
  
                  Total CPU time used (sec):     2081.843
                            User time (sec):     2076.781
                          System time (sec):        5.062
                         Elapsed time (sec):     2107.053
  
                   Maximum memory used (kb):      591968.
                   Average memory used (kb):          N/A
  
                          Minor page faults:       634314
                          Major page faults:          752
                 Voluntary context switches:         2328
